##File Type: Far field
##File Format: 4
##Source: HW_Dip_ant
##Date: 2019-02-05 16:29:40  
** File exported by FEKO kernel version 2017.1-403


#Configuration Name: StandardConfiguration1
#Request Name: FarField1
#Frequency:   8.68000000E+008
#Coordinate System: Spherical
#No. of Theta Samples: 37
#No. of Phi Samples: 73
#Result Type: Directivity
#No. of Header Lines: 1
#       "Theta"             "Phi"           "Re(Etheta)"       "Im(Etheta)"        "Re(Ephi)"         "Im(Ephi)"   "Directivity(Theta)" "Directivity(Phi)" "Directivity(Total)"
    0.00000000E+000    0.00000000E+000    0.00000000E+000    0.00000000E+000    0.00000000E+000    0.00000000E+000   -9.99999900E+002   -9.99999900E+002   -9.99999900E+002
    5.00000000E+000    0.00000000E+000   -1.06700398E-001   -1.79573929E-001    0.00000000E+000    0.00000000E+000   -2.13804786E+001   -9.99999900E+002   -2.13804786E+001
    1.00000000E+001    0.00000000E+000   -2.14182867E-001   -3.60009791E-001    0.00000000E+000    0.00000000E+000   -1.53361973E+001   -9.99999900E+002   -1.53361973E+001
    1.50000000E+001    0.00000000E+000   -3.23137749E-001   -5.42041578E-001    0.00000000E+000    0.00000000E+000   -1.17771991E+001   -9.99999900E+002   -1.17771991E+001
    2.00000000E+001    0.00000000E+000   -4.34074521E-001   -7.26151354E-001    0.00000000E+000    0.00000000E+000   -9.23109682E+000   -9.99999900E+002   -9.23109682E+000
    2.50000000E+001    0.00000000E+000   -5.47238285E-001   -9.12453776E-001    0.00000000E+000    0.00000000E+000   -7.23988299E+000   -9.99999900E+002   -7.23988299E+000
    3.00000000E+001    0.00000000E+000   -6.62535830E-001   -1.10059477E+000    0.00000000E+000    0.00000000E+000   -5.60297648E+000   -9.99999900E+002   -5.60297648E+000
    3.50000000E+001    0.00000000E+000   -7.79476126E-001   -1.28967120E+000    0.00000000E+000    0.00000000E+000   -4.21665150E+000   -9.99999900E+002   -4.21665150E+000
    4.00000000E+001    0.00000000E+000   -8.97131004E-001   -1.47817940E+000    0.00000000E+000    0.00000000E+000   -3.02200082E+000   -9.99999900E+002   -3.02200082E+000
    4.50000000E+001    0.00000000E+000   -1.01412203E+000   -1.66400062E+000    0.00000000E+000    0.00000000E+000   -1.98371036E+000   -9.99999900E+002   -1.98371036E+000
    5.00000000E+001    0.00000000E+000   -1.12863907E+000   -1.84443072E+000    0.00000000E+000    0.00000000E+000   -1.07999339E+000   -9.99999900E+002   -1.07999339E+000
    5.50000000E+001    0.00000000E+000   -1.23849447E+000   -2.01625895E+000    0.00000000E+000    0.00000000E+000   -2.97271442E-001   -9.99999900E+002   -2.97271442E-001
    6.00000000E+001    0.00000000E+000   -1.34121395E+000   -2.17589718E+000    0.00000000E+000    0.00000000E+000    3.72874455E-001   -9.99999900E+002    3.72874455E-001
    6.50000000E+001    0.00000000E+000   -1.43416171E+000   -2.31955546E+000    0.00000000E+000    0.00000000E+000    9.35562712E-001   -9.99999900E+002    9.35562712E-001
    7.00000000E+001    0.00000000E+000   -1.51469294E+000   -2.44345451E+000    0.00000000E+000    0.00000000E+000    1.39379793E+000   -9.99999900E+002    1.39379793E+000
    7.50000000E+001    0.00000000E+000   -1.58032260E+000   -2.54405970E+000    0.00000000E+000    0.00000000E+000    1.74925246E+000   -9.99999900E+002    1.74925246E+000
    8.00000000E+001    0.00000000E+000   -1.62889609E+000   -2.61831675E+000    0.00000000E+000    0.00000000E+000    2.00278900E+000   -9.99999900E+002    2.00278900E+000
    8.50000000E+001    0.00000000E+000   -1.65874560E+000   -2.66386701E+000    0.00000000E+000    0.00000000E+000    2.15480779E+000   -9.99999900E+002    2.15480779E+000
    9.00000000E+001    0.00000000E+000   -1.66881584E+000   -2.67922032E+000    0.00000000E+000    0.00000000E+000    2.20546747E+000   -9.99999900E+002    2.20546747E+000
    9.50000000E+001    0.00000000E+000   -1.65874560E+000   -2.66386701E+000    0.00000000E+000    0.00000000E+000    2.15480779E+000   -9.99999900E+002    2.15480779E+000
    1.00000000E+002    0.00000000E+000   -1.62889609E+000   -2.61831675E+000    0.00000000E+000    0.00000000E+000    2.00278900E+000   -9.99999900E+002    2.00278900E+000
    1.05000000E+002    0.00000000E+000   -1.58032260E+000   -2.54405970E+000    0.00000000E+000    0.00000000E+000    1.74925246E+000   -9.99999900E+002    1.74925246E+000
    1.10000000E+002    0.00000000E+000   -1.51469294E+000   -2.44345451E+000    0.00000000E+000    0.00000000E+000    1.39379793E+000   -9.99999900E+002    1.39379793E+000
    1.15000000E+002    0.00000000E+000   -1.43416171E+000   -2.31955546E+000    0.00000000E+000    0.00000000E+000    9.35562712E-001   -9.99999900E+002    9.35562712E-001
    1.20000000E+002    0.00000000E+000   -1.34121395E+000   -2.17589718E+000    0.00000000E+000    0.00000000E+000    3.72874455E-001   -9.99999900E+002    3.72874455E-001
    1.25000000E+002    0.00000000E+000   -1.23849447E+000   -2.01625895E+000    0.00000000E+000    0.00000000E+000   -2.97271441E-001   -9.99999900E+002   -2.97271441E-001
    1.30000000E+002    0.00000000E+000   -1.12863907E+000   -1.84443072E+000    0.00000000E+000    0.00000000E+000   -1.07999339E+000   -9.99999900E+002   -1.07999339E+000
    1.35000000E+002    0.00000000E+000   -1.01412203E+000   -1.66400062E+000    0.00000000E+000    0.00000000E+000   -1.98371036E+000   -9.99999900E+002   -1.98371036E+000
    1.40000000E+002    0.00000000E+000   -8.97131004E-001   -1.47817940E+000    0.00000000E+000    0.00000000E+000   -3.02200082E+000   -9.99999900E+002   -3.02200082E+000
    1.45000000E+002    0.00000000E+000   -7.79476126E-001   -1.28967120E+000    0.00000000E+000    0.00000000E+000   -4.21665150E+000   -9.99999900E+002   -4.21665150E+000
    1.50000000E+002    0.00000000E+000   -6.62535830E-001   -1.10059477E+000    0.00000000E+000    0.00000000E+000   -5.60297648E+000   -9.99999900E+002   -5.60297648E+000
    1.55000000E+002    0.00000000E+000   -5.47238285E-001   -9.12453776E-001    0.00000000E+000    0.00000000E+000   -7.23988299E+000   -9.99999900E+002   -7.23988299E+000
    1.60000000E+002    0.00000000E+000   -4.34074521E-001   -7.26151354E-001    0.00000000E+000    0.00000000E+000   -9.23109682E+000   -9.99999900E+002   -9.23109682E+000
    1.65000000E+002    0.00000000E+000   -3.23137749E-001   -5.42041578E-001    0.00000000E+000    0.00000000E+000   -1.17771991E+001   -9.99999900E+002   -1.17771991E+001
    1.70000000E+002    0.00000000E+000   -2.14182867E-001   -3.60009791E-001    0.00000000E+000    0.00000000E+000   -1.53361973E+001   -9.99999900E+002   -1.53361973E+001
    1.75000000E+002    0.00000000E+000   -1.06700398E-001   -1.79573929E-001    0.00000000E+000    0.00000000E+000   -2.13804786E+001   -9.99999900E+002   -2.13804786E+001
    1.80000000E+002    0.00000000E+000   -1.49549901E-016   -2.51795992E-016    0.00000000E+000    0.00000000E+000   -3.18445335E+002   -9.99999900E+002   -3.18445335E+002
    0.00000000E+000    5.00000000E+000    0.00000000E+000    0.00000000E+000    0.00000000E+000    0.00000000E+000   -9.99999900E+002   -9.99999900E+002   -9.99999900E+002
    5.00000000E+000    5.00000000E+000   -1.06700398E-001   -1.79573929E-001    0.00000000E+000    1.73472348E-018   -2.13804786E+001   -3.62993902E+002   -2.13804786E+001
    1.00000000E+001    5.00000000E+000   -2.14182867E-001   -3.60009791E-001   -3.46944695E-018   -3.46944695E-018   -1.53361973E+001   -3.53963002E+002   -1.53361973E+001
    1.50000000E+001    5.00000000E+000   -3.23137749E-001   -5.42041578E-001    3.46944695E-018    0.00000000E+000   -1.17771991E+001   -3.56973302E+002   -1.17771991E+001
    2.00000000E+001    5.00000000E+000   -4.34074521E-001   -7.26151353E-001    0.00000000E+000    0.00000000E+000   -9.23109683E+000   -9.99999900E+002   -9.23109683E+000
    2.50000000E+001    5.00000000E+000   -5.47238285E-001   -9.12453776E-001   -6.93889390E-018    0.00000000E+000   -7.23988299E+000   -3.50952702E+002   -7.23988299E+000
    3.00000000E+001    5.00000000E+000   -6.62535829E-001   -1.10059477E+000    6.93889390E-018    0.00000000E+000   -5.60297649E+000   -3.50952702E+002   -5.60297649E+000
    3.50000000E+001    5.00000000E+000   -7.79476125E-001   -1.28967120E+000    0.00000000E+000    0.00000000E+000   -4.21665150E+000   -9.99999900E+002   -4.21665150E+000
    4.00000000E+001    5.00000000E+000   -8.97131004E-001   -1.47817940E+000    0.00000000E+000    1.38777878E-017   -3.02200081E+000   -3.44932102E+002   -3.02200081E+000
    4.50000000E+001    5.00000000E+000   -1.01412203E+000   -1.66400062E+000    0.00000000E+000    0.00000000E+000   -1.98371036E+000   -9.99999900E+002   -1.98371036E+000
    5.00000000E+001    5.00000000E+000   -1.12863907E+000   -1.84443072E+000    0.00000000E+000    0.00000000E+000   -1.07999339E+000   -9.99999900E+002   -1.07999339E+000
    5.50000000E+001    5.00000000E+000   -1.23849447E+000   -2.01625895E+000    0.00000000E+000    1.38777878E-017   -2.97271450E-001   -3.44932102E+002   -2.97271450E-001
    6.00000000E+001    5.00000000E+000   -1.34121394E+000   -2.17589718E+000    0.00000000E+000    1.38777878E-017    3.72874435E-001   -3.44932102E+002    3.72874435E-001
    6.50000000E+001    5.00000000E+000   -1.43416170E+000   -2.31955546E+000    0.00000000E+000    0.00000000E+000    9.35562680E-001   -9.99999900E+002    9.35562680E-001
    7.00000000E+001    5.00000000E+000   -1.51469292E+000   -2.44345451E+000    0.00000000E+000    0.00000000E+000    1.39379789E+000   -9.99999900E+002    1.39379789E+000
    7.50000000E+001    5.00000000E+000   -1.58032256E+000   -2.54405970E+000    0.00000000E+000    6.93889390E-018    1.74925241E+000   -3.50952702E+002    1.74925241E+000
    8.00000000E+001    5.00000000E+000   -1.62889605E+000   -2.61831675E+000    0.00000000E+000   -6.93889390E-018    2.00278894E+000   -3.50952702E+002    2.00278894E+000
    8.50000000E+001    5.00000000E+000   -1.65874556E+000   -2.66386701E+000    1.73472348E-018    0.00000000E+000    2.15480772E+000   -3.62993902E+002    2.15480772E+000
    9.00000000E+001    5.00000000E+000   -1.66881580E+000   -2.67922031E+000    1.54074396E-033    0.00000000E+000    2.20546740E+000   -6.64023898E+002    2.20546740E+000
    9.50000000E+001    5.00000000E+000   -1.65874556E+000   -2.66386701E+000    0.00000000E+000    3.46944695E-018    2.15480772E+000   -3.56973302E+002    2.15480772E+000
    1.00000000E+002    5.00000000E+000   -1.62889605E+000   -2.61831675E+000    0.00000000E+000    0.00000000E+000    2.00278894E+000   -9.99999900E+002    2.00278894E+000
    1.05000000E+002    5.00000000E+000   -1.58032256E+000   -2.54405970E+000    6.93889390E-018   -6.93889390E-018    1.74925241E+000   -3.47942402E+002    1.74925241E+000
    1.10000000E+002    5.00000000E+000   -1.51469292E+000   -2.44345451E+000    0.00000000E+000    0.00000000E+000    1.39379789E+000   -9.99999900E+002    1.39379789E+000
    1.15000000E+002    5.00000000E+000   -1.43416170E+000   -2.31955546E+000    0.00000000E+000   -1.38777878E-017    9.35562680E-001   -3.44932102E+002    9.35562680E-001
    1.20000000E+002    5.00000000E+000   -1.34121394E+000   -2.17589718E+000    0.00000000E+000   -1.38777878E-017    3.72874436E-001   -3.44932102E+002    3.72874436E-001
    1.25000000E+002    5.00000000E+000   -1.23849447E+000   -2.01625895E+000    0.00000000E+000    1.38777878E-017   -2.97271450E-001   -3.44932102E+002   -2.97271450E-001
    1.30000000E+002    5.00000000E+000   -1.12863907E+000   -1.84443072E+000    0.00000000E+000    0.00000000E+000   -1.07999339E+000   -9.99999900E+002   -1.07999339E+000
    1.35000000E+002    5.00000000E+000   -1.01412203E+000   -1.66400062E+000    6.93889390E-018    2.77555756E-017   -1.98371036E+000   -3.38648213E+002   -1.98371036E+000
    1.40000000E+002    5.00000000E+000   -8.97131004E-001   -1.47817940E+000    0.00000000E+000    0.00000000E+000   -3.02200081E+000   -9.99999900E+002   -3.02200081E+000
    1.45000000E+002    5.00000000E+000   -7.79476125E-001   -1.28967120E+000    0.00000000E+000   -1.38777878E-017   -4.21665150E+000   -3.44932102E+002   -4.21665150E+000
    1.50000000E+002    5.00000000E+000   -6.62535829E-001   -1.10059477E+000    0.00000000E+000   -1.38777878E-017   -5.60297649E+000   -3.44932102E+002   -5.60297649E+000
    1.55000000E+002    5.00000000E+000   -5.47238285E-001   -9.12453776E-001    6.93889390E-018    0.00000000E+000   -7.23988299E+000   -3.50952702E+002   -7.23988299E+000
    1.60000000E+002    5.00000000E+000   -4.34074520E-001   -7.26151353E-001    0.00000000E+000   -6.93889390E-018   -9.23109683E+000   -3.50952702E+002   -9.23109683E+000
    1.65000000E+002    5.00000000E+000   -3.23137749E-001   -5.42041578E-001    0.00000000E+000    0.00000000E+000   -1.17771991E+001   -9.99999900E+002   -1.17771991E+001
    1.70000000E+002    5.00000000E+000   -2.14182867E-001   -3.60009791E-001    0.00000000E+000    3.46944695E-018   -1.53361973E+001   -3.56973302E+002   -1.53361973E+001
    1.75000000E+002    5.00000000E+000   -1.06700398E-001   -1.79573929E-001    0.00000000E+000   -1.73472348E-018   -2.13804786E+001   -3.62993902E+002   -2.13804786E+001
    1.80000000E+002    5.00000000E+000   -1.49549901E-016   -2.51795992E-016    0.00000000E+000    3.08148791E-033   -3.18445335E+002   -6.58003298E+002   -3.18445335E+002
    0.00000000E+000    1.00000000E+001    0.00000000E+000    0.00000000E+000    0.00000000E+000    0.00000000E+000   -9.99999900E+002   -9.99999900E+002   -9.99999900E+002
    5.00000000E+000    1.00000000E+001   -1.06700398E-001   -1.79573929E-001    0.00000000E+000    3.46944695E-018   -2.13804786E+001   -3.56973302E+002   -2.13804786E+001
    1.00000000E+001    1.00000000E+001   -2.14182867E-001   -3.60009791E-001    6.93889390E-018    0.00000000E+000   -1.53361973E+001   -3.50952702E+002   -1.53361973E+001
    1.50000000E+001    1.00000000E+001   -3.23137749E-001   -5.42041577E-001   -6.93889390E-018    0.00000000E+000   -1.17771991E+001   -3.50952702E+002   -1.17771991E+001
    2.00000000E+001    1.00000000E+001   -4.34074520E-001   -7.26151353E-001    0.00000000E+000   -1.38777878E-017   -9.23109684E+000   -3.44932102E+002   -9.23109684E+000
    2.50000000E+001    1.00000000E+001   -5.47238285E-001   -9.12453775E-001   -2.77555756E-017   -2.77555756E-017   -7.23988300E+000   -3.35901202E+002   -7.23988300E+000
    3.00000000E+001    1.00000000E+001   -6.62535829E-001   -1.10059477E+000    0.00000000E+000    0.00000000E+000   -5.60297649E+000   -9.99999900E+002   -5.60297649E+000
    3.50000000E+001    1.00000000E+001   -7.79476125E-001   -1.28967120E+000   -1.38777878E-017    2.77555756E-017   -4.21665150E+000   -3.37942402E+002   -4.21665150E+000
    4.00000000E+001    1.00000000E+001   -8.97131004E-001   -1.47817940E+000    0.00000000E+000    0.00000000E+000   -3.02200081E+000   -9.99999900E+002   -3.02200081E+000
    4.50000000E+001    1.00000000E+001   -1.01412203E+000   -1.66400062E+000   -2.77555756E-017   -2.77555756E-017   -1.98371036E+000   -3.35901202E+002   -1.98371036E+000
    5.00000000E+001    1.00000000E+001   -1.12863907E+000   -1.84443072E+000    1.38777878E-017    0.00000000E+000   -1.07999340E+000   -3.44932102E+002   -1.07999340E+000
    5.50000000E+001    1.00000000E+001   -1.23849447E+000   -2.01625895E+000   -1.38777878E-017    0.00000000E+000   -2.97271463E-001   -3.44932102E+002   -2.97271463E-001
    6.00000000E+001    1.00000000E+001   -1.34121393E+000   -2.17589717E+000    0.00000000E+000    0.00000000E+000    3.72874410E-001   -9.99999900E+002    3.72874410E-001
    6.50000000E+001    1.00000000E+001   -1.43416168E+000   -2.31955545E+000    0.00000000E+000    0.00000000E+000    9.35562641E-001   -9.99999900E+002    9.35562641E-001
    7.00000000E+001    1.00000000E+001   -1.51469290E+000   -2.44345450E+000   -1.38777878E-017    2.77555756E-017    1.39379783E+000   -3.37942402E+002    1.39379783E+000
    7.50000000E+001    1.00000000E+001   -1.58032254E+000   -2.54405969E+000   -1.38777878E-017    0.00000000E+000    1.74925234E+000   -3.44932102E+002    1.74925234E+000
    8.00000000E+001    1.00000000E+001   -1.62889602E+000   -2.61831674E+000   -6.93889390E-018    0.00000000E+000    2.00278886E+000   -3.50952702E+002    2.00278886E+000
    8.50000000E+001    1.00000000E+001   -1.65874552E+000   -2.66386700E+000    3.46944695E-018    6.93889390E-018    2.15480764E+000   -3.49983602E+002    2.15480764E+000
    9.00000000E+001    1.00000000E+001   -1.66881576E+000   -2.67922031E+000    0.00000000E+000    0.00000000E+000    2.20546732E+000   -9.99999900E+002    2.20546732E+000
    9.50000000E+001    1.00000000E+001   -1.65874552E+000   -2.66386700E+000    0.00000000E+000   -6.93889390E-018    2.15480764E+000   -3.50952702E+002    2.15480764E+000
    1.00000000E+002    1.00000000E+001   -1.62889602E+000   -2.61831674E+000   -6.93889390E-018   -1.38777878E-017    2.00278886E+000   -3.43963002E+002    2.00278886E+000
    1.05000000E+002    1.00000000E+001   -1.58032254E+000   -2.54405969E+000    0.00000000E+000    0.00000000E+000    1.74925234E+000   -9.99999900E+002    1.74925234E+000
    1.10000000E+002    1.00000000E+001   -1.51469290E+000   -2.44345450E+000    0.00000000E+000    0.00000000E+000    1.39379783E+000   -9.99999900E+002    1.39379783E+000
    1.15000000E+002    1.00000000E+001   -1.43416168E+000   -2.31955545E+000    1.38777878E-017    2.77555756E-017    9.35562641E-001   -3.37942402E+002    9.35562641E-001
    1.20000000E+002    1.00000000E+001   -1.34121393E+000   -2.17589717E+000   -1.38777878E-017    0.00000000E+000    3.72874410E-001   -3.44932102E+002    3.72874410E-001
    1.25000000E+002    1.00000000E+001   -1.23849447E+000   -2.01625895E+000    1.38777878E-017    0.00000000E+000   -2.97271463E-001   -3.44932102E+002   -2.97271463E-001
    1.30000000E+002    1.00000000E+001   -1.12863907E+000   -1.84443072E+000    1.38777878E-017   -2.77555756E-017   -1.07999340E+000   -3.37942402E+002   -1.07999340E+000
    1.35000000E+002    1.00000000E+001   -1.01412203E+000   -1.66400062E+000    0.00000000E+000   -2.77555756E-017   -1.98371036E+000   -3.38911502E+002   -1.98371036E+000
    1.40000000E+002    1.00000000E+001   -8.97131004E-001   -1.47817940E+000   -1.38777878E-017    0.00000000E+000   -3.02200081E+000   -3.44932102E+002   -3.02200081E+000
    1.45000000E+002    1.00000000E+001   -7.79476125E-001   -1.28967120E+000   -1.38777878E-017   -2.77555756E-017   -4.21665150E+000   -3.37942402E+002   -4.21665150E+000
    1.50000000E+002    1.00000000E+001   -6.62535829E-001   -1.10059477E+000    0.00000000E+000    0.00000000E+000   -5.60297649E+000   -9.99999900E+002   -5.60297649E+000
    1.55000000E+002    1.00000000E+001   -5.47238285E-001   -9.12453775E-001    0.00000000E+000    0.00000000E+000   -7.23988300E+000   -9.99999900E+002   -7.23988300E+000
    1.60000000E+002    1.00000000E+001   -4.34074520E-001   -7.26151353E-001    0.00000000E+000    0.00000000E+000   -9.23109684E+000   -9.99999900E+002   -9.23109684E+000
    1.65000000E+002    1.00000000E+001   -3.23137749E-001   -5.42041577E-001    0.00000000E+000    1.38777878E-017   -1.17771991E+001   -3.44932102E+002   -1.17771991E+001
    1.70000000E+002    1.00000000E+001   -2.14182867E-001   -3.60009791E-001    0.00000000E+000    0.00000000E+000   -1.53361973E+001   -9.99999900E+002   -1.53361973E+001
    1.75000000E+002    1.00000000E+001   -1.06700398E-001   -1.79573929E-001    0.00000000E+000   -3.46944695E-018   -2.13804786E+001   -3.56973302E+002   -2.13804786E+001
    1.80000000E+002    1.00000000E+001   -1.49549901E-016   -2.51795992E-016   -3.08148791E-033   -6.16297582E-033   -3.18445335E+002   -6.51013598E+002   -3.18445335E+002
    0.00000000E+000    1.50000000E+001    0.00000000E+000    0.00000000E+000    0.00000000E+000    0.00000000E+000   -9.99999900E+002   -9.99999900E+002   -9.99999900E+002
    5.00000000E+000    1.50000000E+001   -1.06700398E-001   -1.79573929E-001   -3.46944695E-018    0.00000000E+000   -2.13804786E+001   -3.56973302E+002   -2.13804786E+001
    1.00000000E+001    1.50000000E+001   -2.14182867E-001   -3.60009790E-001    0.00000000E+000    0.00000000E+000   -1.53361973E+001   -9.99999900E+002   -1.53361973E+001
    1.50000000E+001    1.50000000E+001   -3.23137749E-001   -5.42041577E-001    1.38777878E-017    2.77555756E-017   -1.17771991E+001   -3.37942402E+002   -1.17771991E+001
    2.00000000E+001    1.50000000E+001   -4.34074520E-001   -7.26151352E-001    0.00000000E+000    0.00000000E+000   -9.23109684E+000   -9.99999900E+002   -9.23109684E+000
    2.50000000E+001    1.50000000E+001   -5.47238285E-001   -9.12453775E-001   -1.38777878E-017   -2.77555756E-017   -7.23988300E+000   -3.37942402E+002   -7.23988300E+000
    3.00000000E+001    1.50000000E+001   -6.62535829E-001   -1.10059477E+000    0.00000000E+000   -2.77555756E-017   -5.60297649E+000   -3.38911502E+002   -5.60297649E+000
    3.50000000E+001    1.50000000E+001   -7.79476125E-001   -1.28967120E+000    0.00000000E+000    5.55111512E-017   -4.21665150E+000   -3.32890902E+002   -4.21665150E+000
    4.00000000E+001    1.50000000E+001   -8.97131003E-001   -1.47817940E+000    2.77555756E-017    5.55111512E-017   -3.02200081E+000   -3.31921802E+002   -3.02200081E+000
    4.50000000E+001    1.50000000E+001   -1.01412203E+000   -1.66400062E+000    2.77555756E-017    0.00000000E+000   -1.98371036E+000   -3.38911502E+002   -1.98371036E+000
    5.00000000E+001    1.50000000E+001   -1.12863907E+000   -1.84443072E+000    2.77555756E-017    5.55111512E-017   -1.07999340E+000   -3.31921802E+002   -1.07999340E+000
    5.50000000E+001    1.50000000E+001   -1.23849447E+000   -2.01625895E+000    2.77555756E-017    0.00000000E+000   -2.97271472E-001   -3.38911502E+002   -2.97271472E-001
    6.00000000E+001    1.50000000E+001   -1.34121393E+000   -2.17589717E+000    0.00000000E+000    0.00000000E+000    3.72874394E-001   -9.99999900E+002    3.72874394E-001
    6.50000000E+001    1.50000000E+001   -1.43416168E+000   -2.31955544E+000   -2.77555756E-017   -2.77555756E-017    9.35562617E-001   -3.35901202E+002    9.35562617E-001
    7.00000000E+001    1.50000000E+001   -1.51469289E+000   -2.44345449E+000    0.00000000E+000   -2.77555756E-017    1.39379780E+000   -3.38911502E+002    1.39379780E+000
    7.50000000E+001    1.50000000E+001   -1.58032252E+000   -2.54405968E+000    0.00000000E+000    0.00000000E+000    1.74925231E+000   -9.99999900E+002    1.74925231E+000
    8.00000000E+001    1.50000000E+001   -1.62889600E+000   -2.61831673E+000    0.00000000E+000    1.38777878E-017    2.00278883E+000   -3.44932102E+002    2.00278883E+000
    8.50000000E+001    1.50000000E+001   -1.65874551E+000   -2.66386699E+000    0.00000000E+000    0.00000000E+000    2.15480761E+000   -9.99999900E+002    2.15480761E+000
    9.00000000E+001    1.50000000E+001   -1.66881574E+000   -2.67922030E+000   -3.08148791E-033    0.00000000E+000    2.20546728E+000   -6.58003298E+002    2.20546728E+000
    9.50000000E+001    1.50000000E+001   -1.65874551E+000   -2.66386699E+000    6.93889390E-018    0.00000000E+000    2.15480761E+000   -3.50952702E+002    2.15480761E+000
    1.00000000E+002    1.50000000E+001   -1.62889600E+000   -2.61831673E+000    0.00000000E+000    0.00000000E+000    2.00278883E+000   -9.99999900E+002    2.00278883E+000
    1.05000000E+002    1.50000000E+001   -1.58032252E+000   -2.54405968E+000   -1.38777878E-017   -2.77555756E-017    1.74925231E+000   -3.37942402E+002    1.74925231E+000
    1.10000000E+002    1.50000000E+001   -1.51469289E+000   -2.44345449E+000    0.00000000E+000   -2.77555756E-017    1.39379780E+000   -3.38911502E+002    1.39379780E+000
    1.15000000E+002    1.50000000E+001   -1.43416168E+000   -2.31955544E+000    0.00000000E+000    0.00000000E+000    9.35562617E-001   -9.99999900E+002    9.35562617E-001
    1.20000000E+002    1.50000000E+001   -1.34121393E+000   -2.17589717E+000    0.00000000E+000    5.55111512E-017    3.72874394E-001   -3.32890902E+002    3.72874394E-001
    1.25000000E+002    1.50000000E+001   -1.23849447E+000   -2.01625895E+000   -2.77555756E-017   -1.11022302E-016   -2.97271472E-001   -3.26607013E+002   -2.97271472E-001
    1.30000000E+002    1.50000000E+001   -1.12863907E+000   -1.84443072E+000    0.00000000E+000   -1.11022302E-016   -1.07999340E+000   -3.26870302E+002   -1.07999340E+000
    1.35000000E+002    1.50000000E+001   -1.01412203E+000   -1.66400062E+000    0.00000000E+000    5.55111512E-017   -1.98371036E+000   -3.32890902E+002   -1.98371036E+000
    1.40000000E+002    1.50000000E+001   -8.97131003E-001   -1.47817940E+000    2.77555756E-017    0.00000000E+000   -3.02200081E+000   -3.38911502E+002   -3.02200081E+000
    1.45000000E+002    1.50000000E+001   -7.79476124E-001   -1.28967120E+000    0.00000000E+000    0.00000000E+000   -4.21665150E+000   -9.99999900E+002   -4.21665150E+000
    1.50000000E+002    1.50000000E+001   -6.62535829E-001   -1.10059477E+000    0.00000000E+000    2.77555756E-017   -5.60297649E+000   -3.38911502E+002   -5.60297649E+000
    1.55000000E+002    1.50000000E+001   -5.47238285E-001   -9.12453775E-001    0.00000000E+000    0.00000000E+000   -7.23988300E+000   -9.99999900E+002   -7.23988300E+000
    1.60000000E+002    1.50000000E+001   -4.34074520E-001   -7.26151352E-001    0.00000000E+000    0.00000000E+000   -9.23109684E+000   -9.99999900E+002   -9.23109684E+000
    1.65000000E+002    1.50000000E+001   -3.23137749E-001   -5.42041577E-001    0.00000000E+000    0.00000000E+000   -1.17771991E+001   -9.99999900E+002   -1.17771991E+001
    1.70000000E+002    1.50000000E+001   -2.14182867E-001   -3.60009791E-001    0.00000000E+000    0.00000000E+000   -1.53361973E+001   -9.99999900E+002   -1.53361973E+001
    1.75000000E+002    1.50000000E+001   -1.06700398E-001   -1.79573929E-001    0.00000000E+000    6.93889390E-018   -2.13804786E+001   -3.50952702E+002   -2.13804786E+001
    1.80000000E+002    1.50000000E+001   -1.49549901E-016   -2.51795992E-016   -6.16297582E-033    0.00000000E+000   -3.18445335E+002   -6.51982698E+002   -3.18445335E+002
    0.00000000E+000    2.00000000E+001    0.00000000E+000    0.00000000E+000    0.00000000E+000    0.00000000E+000   -9.99999900E+002   -9.99999900E+002   -9.99999900E+002
    5.00000000E+000    2.00000000E+001   -1.06700399E-001   -1.79573929E-001    0.00000000E+000    1.38777878E-017   -2.13804786E+001   -3.44932102E+002   -2.13804786E+001
    1.00000000E+001    2.00000000E+001   -2.14182867E-001   -3.60009790E-001    0.00000000E+000    0.00000000E+000   -1.53361973E+001   -9.99999900E+002   -1.53361973E+001
    1.50000000E+001    2.00000000E+001   -3.23137749E-001   -5.42041576E-001   -1.38777878E-017    0.00000000E+000   -1.17771991E+001   -3.44932102E+002   -1.17771991E+001
    2.00000000E+001    2.00000000E+001   -4.34074520E-001   -7.26151352E-001    0.00000000E+000   -2.77555756E-017   -9.23109685E+000   -3.38911502E+002   -9.23109685E+000
    2.50000000E+001    2.00000000E+001   -5.47238285E-001   -9.12453775E-001   -2.77555756E-017    0.00000000E+000   -7.23988300E+000   -3.38911502E+002   -7.23988300E+000
    3.00000000E+001    2.00000000E+001   -6.62535828E-001   -1.10059477E+000   -2.77555756E-017    5.55111512E-017   -5.60297649E+000   -3.31921802E+002   -5.60297649E+000
    3.50000000E+001    2.00000000E+001   -7.79476124E-001   -1.28967120E+000    2.77555756E-017    5.55111512E-017   -4.21665150E+000   -3.31921802E+002   -4.21665150E+000
    4.00000000E+001    2.00000000E+001   -8.97131003E-001   -1.47817940E+000    2.77555756E-017    0.00000000E+000   -3.02200081E+000   -3.38911502E+002   -3.02200081E+000
    4.50000000E+001    2.00000000E+001   -1.01412203E+000   -1.66400062E+000   -2.77555756E-017    0.00000000E+000   -1.98371035E+000   -3.38911502E+002   -1.98371035E+000
    5.00000000E+001    2.00000000E+001   -1.12863907E+000   -1.84443071E+000    0.00000000E+000   -5.55111512E-017   -1.07999340E+000   -3.32890902E+002   -1.07999340E+000
    5.50000000E+001    2.00000000E+001   -1.23849447E+000   -2.01625895E+000   -5.55111512E-017    5.55111512E-017   -2.97271470E-001   -3.29880602E+002   -2.97271470E-001
    6.00000000E+001    2.00000000E+001   -1.34121394E+000   -2.17589717E+000    0.00000000E+000    0.00000000E+000    3.72874397E-001   -9.99999900E+002    3.72874397E-001
    6.50000000E+001    2.00000000E+001   -1.43416169E+000   -2.31955544E+000    0.00000000E+000    0.00000000E+000    9.35562623E-001   -9.99999900E+002    9.35562623E-001
    7.00000000E+001    2.00000000E+001   -1.51469290E+000   -2.44345449E+000    0.00000000E+000    0.00000000E+000    1.39379781E+000   -9.99999900E+002    1.39379781E+000
    7.50000000E+001    2.00000000E+001   -1.58032254E+000   -2.54405968E+000   -2.77555756E-017    2.77555756E-017    1.74925233E+000   -3.35901202E+002    1.74925233E+000
    8.00000000E+001    2.00000000E+001   -1.62889602E+000   -2.61831673E+000    0.00000000E+000    0.00000000E+000    2.00278885E+000   -9.99999900E+002    2.00278885E+000
    8.50000000E+001    2.00000000E+001   -1.65874553E+000   -2.66386700E+000    0.00000000E+000   -1.38777878E-017    2.15480764E+000   -3.44932102E+002    2.15480764E+000
    9.00000000E+001    2.00000000E+001   -1.66881576E+000   -2.67922030E+000    0.00000000E+000   -6.16297582E-033    2.20546731E+000   -6.51982698E+002    2.20546731E+000
    9.50000000E+001    2.00000000E+001   -1.65874553E+000   -2.66386700E+000    0.00000000E+000    1.38777878E-017    2.15480764E+000   -3.44932102E+002    2.15480764E+000
    1.00000000E+002    2.00000000E+001   -1.62889602E+000   -2.61831673E+000   -1.38777878E-017   -2.77555756E-017    2.00278885E+000   -3.37942402E+002    2.00278885E+000
    1.05000000E+002    2.00000000E+001   -1.58032254E+000   -2.54405968E+000    0.00000000E+000    0.00000000E+000    1.74925233E+000   -9.99999900E+002    1.74925233E+000